Random packing of 20 x data.12c_Rh_1, 100 x data.bix

12080 atoms
13960 bonds
25760 angles
27200 dihedrals
15720 impropers

9 atom types
13 bond types
25 angle types
7 dihedral types
2 improper types

  0.000000  80.000000 xlo xhi
  0.000000  80.000000 ylo yhi
  0.000000  80.000000 zlo zhi

  Masses

       1    12.010700000 # C_R
       2     1.007940000 # H_
       3    15.999400000 # O_R
       4    15.999400000 # O_3
       5   102.905500000 # Rh6+3
       6    14.006700000 # N_R
       7    12.010700000 # C_3
       8   102.905500000 # Rh_x
       9    14.006700000 # N_x

  Bond Coeffs

       1      391.669513        1.458000  # C_R C_R
       2      646.680887        1.311940  # C_R O_R
       3      462.655054        1.379256  # C_R C_R
       4      357.440381        1.081418  # C_R H_
       5      367.642470        1.937294  # O_R Rh6+3
       6      379.767766        1.916453  # O_3 Rh6+3
       7      559.995206        0.990254  # O_3 H_
       8      215.154280        2.664000  # Rh6+3 Rh6+3
       9      372.849486        1.994142  # Rh6+3 N_R
      10      663.718927        1.345073  # C_R N_R
      11      529.724731        1.450075  # N_R C_3
      12      331.069389        1.109401  # C_3 H_
      13      369.943935        1.486000  # C_3 C_R

  Angle Coeffs

       1              cosine/periodic      131.755710              -1               3 # C_R C_R O_R
       2              cosine/periodic      187.136328              -1               3 # O_R C_R O_R
       3              cosine/periodic      102.183280              -1               3 # C_R C_R C_R
       4              cosine/periodic      111.297508              -1               3 # C_R C_R C_R
       5              cosine/periodic       57.289016              -1               3 # C_R C_R H_
       6              cosine/periodic      146.313379              -1               3 # C_R O_R Rh6+3
       7                      fourier      150.018405        0.300235        0.267331        0.266745 # Rh6+3 O_3 H_
       8                      fourier      120.499822        0.300235        0.267331        0.266745 # H_ O_3 H_
       9              cosine/periodic      128.124367               1               4 # O_R Rh6+3 O_R
      10              cosine/periodic      130.201034               1               4 # O_R Rh6+3 O_3
      11              cosine/periodic      106.730529               1               4 # O_R Rh6+3 Rh6+3
      12              cosine/periodic      107.561864               1               4 # O_3 Rh6+3 Rh6+3
      13              cosine/periodic      135.558353               1               4 # O_R Rh6+3 N_R
      14              cosine/periodic      115.478512               1               4 # Rh6+3 Rh6+3 N_R
      15              cosine/periodic       79.786967              -1               3 # H_ C_R N_R
      16              cosine/periodic      153.699352              -1               3 # N_R C_R C_R
      17              cosine/periodic      212.442573              -1               3 # N_R C_R N_R
      18              cosine/periodic      120.000516              -1               3 # C_R N_R C_R
      19              cosine/periodic      106.782348              -1               3 # C_R N_R C_3
      20                      fourier      170.007371        0.343737        0.374972        0.281246 # N_R C_3 H_
      21                      fourier      312.548166        0.343737        0.374972        0.281246 # N_R C_3 C_R
      22                      fourier       75.498766        0.343737        0.374972        0.281246 # H_ C_3 H_
      23                      fourier      121.777217        0.343737        0.374972        0.281246 # H_ C_3 C_R
      24              cosine/periodic       99.137149              -1               3 # C_3 C_R C_R
      25              cosine/periodic      109.356147              -1               3 # Rh6+3 N_R C_R

  Dihedral Coeffs

      1        1.250000              -1               2 # O_R C_R C_R C_R
      2        6.737110              -1               2 # C_R C_R O_R Rh6+3
      3        3.368555              -1               2 # C_R C_R C_R H_
      4        0.166667               1               3 # C_R N_R C_3 H_
      5        0.833333              -1               2 # N_R C_3 C_R C_R
      6        3.368555              -1               2 # H_ C_R N_R C_R
      7        6.737110              -1               2 # N_R C_R N_R C_R

  Improper Coeffs

      1        2.000000        1.000000       -1.000000        0.000000               0 # C_R C_R O_R O_R
      2        2.000000        1.000000       -1.000000        0.000000               0 # H_ C_R N_R C_R

  Pair Coeffs

      1        0.105000        3.430851 # C_R C_R
      2        0.044000        2.571134 # H_ H_
      3        0.060000        3.118146 # O_R O_R
      4        0.060000        3.118146 # O_3 O_3
      5        0.053000        2.609442 # Rh6+3 Rh6+3
      6        0.069000        3.260689 # N_R N_R
      7        0.105000        3.430851 # C_3 C_3
      8        0.053000        2.609442 # Rh_x Rh_x
      9        0.069000        3.260689 # N_x N_x

Atoms

  1       1    1      0.000000     84.555310     49.592732      9.612527
  2       1    1      0.000000     83.564181     50.503112     10.350586
  3       1    1      0.000000     83.972182     51.596408     11.055361
  4       1    2      0.000000     84.896097     51.813458     11.093902
  5       1    1      0.000000     83.027176     52.421571     11.739339
  6       1    2      0.000000     83.296502     53.178868     12.243941
  7       1    1      0.000000     81.691231     52.059204     11.625078
  8       1    2      0.000000     81.029198     52.561928     12.081304
  9       1    1      0.000000     81.319361     50.999225     10.874636
  10      1    1      0.000000     82.241866     50.213508     10.182867
  11      1    2      0.000000     81.959944     49.500715      9.620492
  12      1    1      0.000000     79.766348     50.664598     10.823096
  13      1    1      0.000000     85.972254     46.391179     10.332900
  14      1    1      0.000000     85.795703     45.380698     11.499222
  15      1    1      0.000000     86.645974     45.334228     12.565848
  16      1    2      0.000000     87.396532     45.913987     12.601213
  17      1    1      0.000000     86.415315     44.461526     13.567530
  18      1    2      0.000000     87.038259     44.404624     14.281641
  19      1    1      0.000000     85.283132     43.637486     13.581621
  20      1    2      0.000000     85.115840     43.061831     14.319577
  21      1    1      0.000000     84.406902     43.666665     12.499337
  22      1    1      0.000000     84.640888     44.547320     11.463366
  23      1    2      0.000000     84.035429     44.599606     10.735328
  24      1    1      0.000000     83.156660     42.827219     12.506596
  25      1    1      0.000000     87.985184     46.572654      7.198614
  26      1    1      0.000000     88.949215     45.716425      6.374915
  27      1    1      0.000000     90.327484     45.839366      6.659280
  28      1    2      0.000000     90.618055     46.385825      7.380977
  29      1    1      0.000000     91.275717     45.146121      5.871591
  30      1    2      0.000000     92.210179     45.262682      6.004709
  31      1    1      0.000000     90.759398     44.243053      4.844507
  32      1    2      0.000000     91.354394     43.720021      4.317601
  33      1    1      0.000000     89.402419     44.159542      4.651060
  34      1    1      0.000000     88.489877     44.871176      5.386924
  35      1    2      0.000000     87.558097     44.783129      5.220870
  36      1    1      0.000000     88.826718     43.308619      3.475856
  37      1    1      0.000000     86.577529     49.683720      6.494114
  38      1    1      0.000000     86.806286     50.694441      5.304652
  39      1    1      0.000000     87.774819     51.708923      5.419127
  40      1    2      0.000000     88.284717     51.810840      6.215835
  41      1    1      0.000000     87.962775     52.583105      4.304395
  42      1    2      0.000000     88.560569     53.317582      4.384480
  43      1    1      0.000000     87.278829     52.375992      3.083296
  44      1    2      0.000000     87.440041     52.932419      2.327925
  45      1    1      0.000000     86.359426     51.319097      3.023303
  46      1    1      0.000000     86.123541     50.457343      4.122211
  47      1    2      0.000000     85.511106     49.734716      4.047246
  48      1    1      0.000000     85.616328     51.042099      1.727410
  49      1    1      0.000000     74.790162     49.600078     10.467116
  50      1    1      0.000000     73.284675     49.393801     10.231952
  51      1    1      0.000000     72.363285     50.029884     11.088081
  52      1    2      0.000000     72.684762     50.581044     11.790010
  53      1    1      0.000000     70.950500     49.862220     10.912631
  54      1    2      0.000000     70.321463     50.250640     11.506679
  55      1    1      0.000000     70.545773     49.080122      9.792843
  56      1    2      0.000000     69.621601     48.993131      9.592191
  57      1    1      0.000000     71.456964     48.462277      9.009483
  58      1    1      0.000000     72.825633     48.618145      9.176897
  59      1    2      0.000000     73.437114     48.200352      8.581098
  60      1    1      0.000000     70.927011     47.605563      7.785140
  61      1    1      0.000000     77.742302     48.200834     12.304575
  62      1    1      0.000000     78.122517     47.117988     13.375834
  63      1    1      0.000000     77.900672     47.316068     14.757693
  64      1    2      0.000000     77.443505     48.091460     15.062820
  65      1    1      0.000000     78.346335     46.383120     15.655302
  66      1    2      0.000000     78.242584     46.526590     16.589121
  67      1    1      0.000000     78.922312     45.282076     15.207683
  68      1    2      0.000000     79.225047     44.630694     15.830823
  69      1    1      0.000000     79.101029     45.054561     13.823941
  70      1    1      0.000000     78.693927     45.922640     12.895719
  71      1    2      0.000000     78.784054     45.745165     11.965903
  72      1    1      0.000000     79.769588     43.696206     13.380156
  73      1    1      0.000000     76.825177     51.993221      8.992368
  74      1    1      0.000000     76.490501     53.072008      7.956433
  75      1    1      0.000000     76.291449     54.440402      8.360221
  76      1    2      0.000000     76.420927     54.697454      9.268029
  77      1    1      0.000000     75.907208     55.376756      7.425293
  78      1    2      0.000000     75.697896     56.265488      7.689177
  79      1    1      0.000000     75.837586     55.020802      6.160496
  80      1    2      0.000000     75.663167     55.695384      5.515638
  81      1    1      0.000000     76.001150     53.741598      5.711104
  82      1    1      0.000000     76.355227     52.767425      6.674260
  83      1    2      0.000000     76.499927     51.873462      6.392599
  84      1    1      0.000000     75.827226     53.403703      4.207207
  85      1    1      0.000000     78.646152     40.268804     12.554096
  86      1    1      0.000000     77.358405     39.504527     12.609626
  87      1    1      0.000000     76.760485     39.148294     13.751298
  88      1    2      0.000000     77.191206     39.350811     14.574305
  89      1    1      0.000000     75.523720     38.490167     13.781158
  90      1    2      0.000000     75.134045     38.247332     14.610553
  91      1    1      0.000000     74.848701     38.182923     12.559719
  92      1    2      0.000000     73.997854     37.761805     12.567666
  93      1    1      0.000000     75.481487     38.525387     11.344536
  94      1    1      0.000000     76.696208     39.236281     11.378148
  95      1    2      0.000000     77.079110     39.542742     10.565334
  96      1    1      0.000000     74.877795     38.177663     10.044186
  97      1    1      0.000000     82.003948     39.380433     11.717268
  98      1    1      0.000000     82.593430     38.034754     11.231684
  99      1    1      0.000000     83.129152     37.147874     12.144662
  100     1    2      0.000000     83.169950     37.413441     13.054562
  101     1    1      0.000000     83.625678     35.854890     11.793378
  102     1    2      0.000000     83.914558     35.220926     12.440884
  103     1    1      0.000000     83.651683     35.588205     10.385269
  104     1    2      0.000000     84.098060     34.809746     10.073572
  105     1    1      0.000000     83.052256     36.422551      9.467954
  106     1    1      0.000000     82.572728     37.724339      9.922671
  107     1    2      0.000000     82.242566     38.351832      9.291038
  108     1    1      0.000000     82.944094     36.108243      7.947326
  109     1    1      0.000000     73.083342     51.916657      2.383897
  110     1    1      0.000000     71.757562     51.455716      2.774732
  111     1    1      0.000000     70.588928     52.314569      2.607399
  112     1    2      0.000000     70.663156     53.159292      2.178250
  113     1    1      0.000000     69.346675     51.860484      3.092708
  114     1    2      0.000000     68.594708     52.436953      3.017334
  115     1    1      0.000000     69.170081     50.629157      3.671959
  116     1    2      0.000000     68.310155     50.347787      3.961382
  117     1    1      0.000000     70.280557     49.801904      3.826602
  118     1    1      0.000000     71.575958     50.211136      3.331262
  119     1    2      0.000000     72.309411     49.613050      3.390056
  120     1    1      0.000000     70.171189     48.428312      4.441612
  121     1    1      0.000000     77.892760     53.485866      1.125275
  122     1    1      0.000000     79.286104     53.925106      0.708343
  123     1    1      0.000000     79.509669     55.294594      0.490939
  124     1    2      0.000000     78.832621     55.930063      0.689170
  125     1    1      0.000000     80.726756     55.702203     -0.020687
  126     1    2      0.000000     80.870702     56.607603     -0.259640
  127     1    1      0.000000     81.776527     54.724666     -0.183243
  128     1    2      0.000000     82.633693     54.998900     -0.487480
  129     1    1      0.000000     81.534388     53.374564      0.107667
  130     1    1      0.000000     80.288483     53.009217      0.584186
  131     1    2      0.000000     80.129223     52.104264      0.827532
  132     1    1      0.000000     82.615880     52.345562     -0.129837
  133     1    1      0.000000     86.208045     48.714121     -0.965758
  134     1    1      0.000000     87.235595     47.614418     -1.204041
  135     1    1      0.000000     88.334541     47.884114     -2.107780
  136     1    2      0.000000     88.380442     48.716452     -2.565444
  137     1    1      0.000000     89.293332     46.948987     -2.292919
  138     1    2      0.000000     90.031470     47.139955     -2.859292
  139     1    1      0.000000     89.203242     45.705169     -1.663757
  140     1    2      0.000000     89.834683     45.019158     -1.851013
  141     1    1      0.000000     88.124590     45.475446     -0.711097
  142     1    1      0.000000     87.146158     46.434411     -0.550185
  143     1    2      0.000000     86.406449     46.266874      0.021528
  144     1    1      0.000000     88.117502     44.124333      0.084034
  145     1    3      0.000000     84.085029     48.800695      8.786306
  146     1    3      0.000000     85.772174     49.826004      9.909859
  147     1    3      0.000000     85.216690     46.236180      9.353787
  148     1    3      0.000000     86.916637     47.200874     10.502874
  149     1    3      0.000000     86.742533     46.385182      6.935798
  150     1    3      0.000000     88.456101     47.360551      8.054793
  151     1    3      0.000000     85.658962     48.912037      6.357452
  152     1    3      0.000000     87.354193     49.923693      7.496471
  153     1    3      0.000000     75.514188     48.984790      9.677771
  154     1    3      0.000000     75.093253     50.388080     11.397040
  155     1    3      0.000000     77.819472     47.919955     11.125446
  156     1    3      0.000000     77.368909     49.326741     12.825532
  157     1    3      0.000000     79.443731     49.839419      9.905607
  158     1    3      0.000000     79.032445     51.290557     11.619266
  159     1    3      0.000000     77.174128     50.919684      8.462143
  160     1    3      0.000000     76.763494     52.337792     10.193956
  161     1    3      0.000000     78.947494     40.835876     11.496661
  162     1    3      0.000000     79.293663     40.272826     13.658612
  163     1    3      0.000000     81.622498     40.137452     10.811241
  164     1    3      0.000000     82.000469     39.524891     12.972083
  165     1    3      0.000000     82.460281     42.846772     11.464025
  166     1    3      0.000000     82.857567     42.229601     13.574751
  167     1    3      0.000000     79.816655     43.562035     12.108012
  168     1    3      0.000000     80.199742     42.921464     14.275656
  169     1    3      0.000000     73.998942     51.065133      2.448764
  170     1    3      0.000000     73.208020     53.122974      1.986353
  171     1    3      0.000000     76.179813     52.183050      3.904059
  172     1    3      0.000000     75.387042     54.245396      3.486873
  173     1    3      0.000000     77.751788     52.286215      1.517244
  174     1    3      0.000000     76.959034     54.373614      1.107358
  175     1    3      0.000000     75.621262     51.157181      0.010941
  176     1    3      0.000000     74.855216     53.225662     -0.435039
  177     1    3      0.000000     82.387634     51.214310      0.341567
  178     1    3      0.000000     83.688818     52.731867     -0.696756
  179     1    3      0.000000     84.718561     50.179574      1.754236
  180     1    3      0.000000     85.980637     51.692541      0.726423
  181     1    3      0.000000     85.174522     48.344352     -0.383771
  182     1    3      0.000000     86.443841     49.863916     -1.393835
  183     1    3      0.000000     82.886983     49.332836     -1.771374
  184     1    3      0.000000     84.229144     50.863251     -2.852553
  185     1    3      0.000000     70.518205     44.987325      3.900991
  186     1    3      0.000000     68.351814     45.380103      4.513877
  187     1    3      0.000000     71.135759     44.271976      6.599727
  188     1    3      0.000000     69.011688     44.751217      7.260280
  189     1    3      0.000000     71.846040     47.014385      7.136117
  190     1    3      0.000000     69.680530     47.494297      7.696534
  191     1    3      0.000000     71.240563     47.750810      4.473918
  192     1    3      0.000000     69.090341     48.140228      4.971868
  193     1    4      0.000000     83.602670     46.500414      6.661513
  194     1    4      0.000000     77.906497     47.870862      7.987924
  195     1    4      0.000000     80.328853     42.624930      9.223423
  196     1    4      0.000000     76.557279     49.336139      2.613009
  197     1    4      0.000000     82.372396     48.149266      1.044231
  198     1    4      0.000000     73.483913     45.629588      4.861235
  199     1    5      0.000000     85.380661     47.552792      7.830839
  200     1    8      0.000000     87.182789     48.593751      9.026281
  201     1    5      0.000000     77.512181     49.355068      9.761471
  202     1    8      0.000000     77.064868     50.868220     11.568817
  203     1    5      0.000000     80.712473     41.859275     11.407485
  204     1    8      0.000000     81.108768     41.210372     13.678479
  205     1    5      0.000000     75.914054     51.608145      1.989190
  206     1    8      0.000000     75.069280     53.807397      1.514051
  207     1    5      0.000000     83.741792     49.726403      0.012492
  208     1    8      0.000000     85.123674     51.353809     -1.075088
  209     1    5      0.000000     71.242527     45.988889      5.496323
  210     1    8      0.000000     68.974540     46.448301      6.123646
  211     1    1      0.000000     73.596820     38.582174     -2.371974
  212     1    1      0.000000     74.587750     37.671484     -3.109104
  213     1    1      0.000000     74.179749     36.578188     -3.813879
  214     1    2      0.000000     73.255916     36.360187     -3.852720
  215     1    1      0.000000     75.124954     35.753335     -4.498786
  216     1    2      0.000000     74.855710     34.995088     -5.003688
  217     1    1      0.000000     76.460899     36.115703     -4.384525
  218     1    2      0.000000     77.123014     35.612028     -4.841051
  219     1    1      0.000000     76.832652     37.174420     -3.633454
  220     1    1      0.000000     75.910265     37.961398     -2.942314
  221     1    2      0.000000     76.192268     38.673240     -2.380239
  222     1    1      0.000000     78.385864     37.509357     -3.582842
  223     1    1      0.000000     72.179958     41.782777     -3.092647
  224     1    1      0.000000     72.356310     42.792947     -4.258039
  225     1    1      0.000000     71.506238     42.839728     -5.325595
  226     1    2      0.000000     70.755399     42.260608     -5.359731
  227     1    1      0.000000     71.736898     43.712430     -6.327277
  228     1    2      0.000000     71.113954     43.769332     -7.041388
  229     1    1      0.000000     72.868998     44.537420     -6.341068
  230     1    2      0.000000     73.036173     45.111814     -7.078394
  231     1    1      0.000000     73.745111     44.506980     -5.258155
  232     1    1      0.000000     73.511324     43.626636     -4.223113
  233     1    2      0.000000     74.116502     43.574989     -3.493846
  234     1    1      0.000000     74.995552     45.346737     -5.266343
  235     1    1      0.000000     70.166747     41.601942      0.042868
  236     1    1      0.000000     69.202915     42.458481      0.865638
  237     1    1      0.000000     67.824729     42.334590      0.580973
  238     1    2      0.000000     67.534157     41.788130     -0.140724
  239     1    1      0.000000     66.876295     43.027524      1.369592
  240     1    2      0.000000     65.942033     42.911273      1.235544
  241     1    1      0.000000     67.392615     43.930592      2.396675
  242     1    2      0.000000     66.797619     44.453624      2.923582
  243     1    1      0.000000     68.749594     44.014103      2.590122
  244     1    1      0.000000     69.662336     43.302780      1.853329
  245     1    2      0.000000     70.593916     43.390516      2.020312
  246     1    1      0.000000     69.325495     44.865337      3.764397
  247     1    1      0.000000     71.574484     38.489925      0.747069
  248     1    1      0.000000     71.345644     37.480154      1.936831
  249     1    1      0.000000     70.377311     36.465983      1.821426
  250     1    2      0.000000     69.867296     36.362805      1.025348
  251     1    1      0.000000     70.189237     35.590540      2.936788
  252     1    2      0.000000     69.591643     34.856374      2.855773
  253     1    1      0.000000     70.873184     35.797653      4.157886
  254     1    2      0.000000     70.712172     35.241537      4.912328
  255     1    1      0.000000     71.792587     36.854549      4.217879
  256     1    1      0.000000     72.028671     37.716613      3.118042
  257     1    2      0.000000     72.640907     38.438929      3.193937
  258     1    1      0.000000     72.535885     37.131857      5.512843
  259     1    1      0.000000     83.361851     38.573567     -3.225933
  260     1    1      0.000000     84.867338     38.779844     -2.990770
  261     1    1      0.000000     85.788728     38.143761     -3.846899
  262     1    2      0.000000     85.467451     37.592911     -4.549757
  263     1    1      0.000000     87.201513     38.311425     -3.671448
  264     1    2      0.000000     87.830749     37.923316     -4.266426
  265     1    1      0.000000     87.606439     39.093833     -2.552590
  266     1    2      0.000000     88.530612     39.180825     -2.351938
  267     1    1      0.000000     86.695248     39.711679     -1.769230
  268     1    1      0.000000     85.326380     39.555500     -1.935714
  269     1    2      0.000000     84.714899     39.973293     -1.339916
  270     1    1      0.000000     87.224920     40.569032     -0.543658
  271     1    1      0.000000     80.409711     39.972811     -5.063393
  272     1    1      0.000000     80.029496     41.055657     -6.134651
  273     1    1      0.000000     80.251541     40.857888     -7.517440
  274     1    2      0.000000     80.708508     40.082185     -7.821637
  275     1    1      0.000000     79.805678     41.790525     -8.414120
  276     1    2      0.000000     79.909428     41.647055     -9.347938
  277     1    1      0.000000     79.229701     42.891569     -7.966501
  278     1    2      0.000000     78.927083     43.544212     -8.590270
  279     1    1      0.000000     79.050983     43.119084     -6.582758
  280     1    1      0.000000     79.458086     42.251005     -5.654537
  281     1    2      0.000000     79.367959     42.428480     -4.724720
  282     1    1      0.000000     78.382625     44.477749     -6.139903
  283     1    1      0.000000     81.326836     36.180424     -1.751185
  284     1    1      0.000000     81.661711     35.101948     -0.716180
  285     1    1      0.000000     81.860763     33.733554     -1.119968
  286     1    2      0.000000     81.731204     33.477452     -2.027476
  287     1    1      0.000000     82.244805     32.796889     -0.184110
  288     1    2      0.000000     82.454116     31.908157     -0.447995
  289     1    1      0.000000     82.314627     33.153153      1.079757
  290     1    2      0.000000     82.488846     32.478261      1.725545
  291     1    1      0.000000     82.150980     34.433308      1.529449
  292     1    1      0.000000     81.796785     35.406220      0.566923
  293     1    2      0.000000     81.652285     36.300494      0.847654
  294     1    1      0.000000     82.324986     34.770253      3.033046
  295     1    1      0.000000     79.505861     47.904841     -5.312914
  296     1    1      0.000000     80.793526     48.670069     -5.368143
  297     1    1      0.000000     81.391528     49.025351     -6.510116
  298     1    2      0.000000     80.961006     48.823144     -7.334051
  299     1    1      0.000000     82.628293     49.683478     -6.539975
  300     1    2      0.000000     83.018167     49.926624     -7.370300
  301     1    1      0.000000     83.303511     49.991032     -5.319465
  302     1    2      0.000000     84.154076     50.412790     -5.326184
  303     1    1      0.000000     82.670725     49.648569     -4.104283
  304     1    1      0.000000     81.456005     48.937675     -4.137895
  305     1    2      0.000000     81.072903     48.630903     -3.324151
  306     1    1      0.000000     83.274218     49.995983     -2.803004
  307     1    1      0.000000     76.148264     48.793523     -4.477015
  308     1    1      0.000000     75.558583     50.138891     -3.990502
  309     1    1      0.000000     75.022860     51.025771     -4.903480
  310     1    2      0.000000     74.982262     50.760514     -5.814309
  311     1    1      0.000000     74.526534     52.319065     -4.553125
  312     1    2      0.000000     74.237455     52.952719     -5.199701
  313     1    1      0.000000     74.500529     52.585750     -3.145016
  314     1    2      0.000000     74.053953     53.363899     -2.832389
  315     1    1      0.000000     75.099957     51.751404     -2.227701
  316     1    1      0.000000     75.579402     50.450567     -2.682118
  317     1    2      0.000000     75.909646     49.822123     -2.050785
  318     1    1      0.000000     75.207919     52.065402     -0.706144
  319     1    1      0.000000     85.068671     36.256988      4.857285
  320     1    1      0.000000     86.394650     36.718240      4.465521
  321     1    1      0.000000     87.563085     35.859076      4.633783
  322     1    2      0.000000     87.488856     35.014353      5.062932
  323     1    1      0.000000     88.805538     36.313471      4.147545
  324     1    2      0.000000     89.557223     35.737643      4.224149
  325     1    1      0.000000     88.981931     37.544488      3.569223
  326     1    2      0.000000     89.842057     37.826169      3.278871
  327     1    1      0.000000     87.871655     38.372052      3.413652
  328     1    1      0.000000     86.576055     37.962509      3.909921
  329     1    2      0.000000     85.842519     38.561546      3.851427
  330     1    1      0.000000     87.981024     39.745643      2.798641
  331     1    1      0.000000     80.259253     34.687779      6.115907
  332     1    1      0.000000     78.866109     34.248849      6.531910
  333     1    1      0.000000     78.642461     32.880312      6.749614
  334     1    2      0.000000     79.319591     32.243893      6.551083
  335     1    1      0.000000     77.425457     32.471753      7.260940
  336     1    2      0.000000     77.281311     31.566042      7.500822
  337     1    1      0.000000     76.375404     33.449929      7.424726
  338     1    2      0.000000     75.518519     33.175056      7.727733
  339     1    1      0.000000     76.617825     34.799391      7.132586
  340     1    1      0.000000     77.863530     35.164428      6.656996