Random packing of 20 x data.12c_Rh_1, 60 x data.bix

10800 atoms
12600 bonds
23520 angles
24000 dihedrals
14040 impropers

9 atom types
13 bond types
25 angle types
7 dihedral types
2 improper types

  0.000000  78.000000 xlo xhi
  0.000000  78.000000 ylo yhi
  0.000000  78.000000 zlo zhi

  Masses

       1    12.010700000 # C_R
       2     1.007940000 # H_
       3    15.999400000 # O_R
       4    15.999400000 # O_3
       5   102.905500000 # Rh6+3
       6    14.006700000 # N_R
       7    12.010700000 # C_3
       8   102.905500000 # Rh_x
       9    14.006700000 # N_x

  Bond Coeffs

       1      391.669513        1.458000  # C_R C_R
       2      646.680887        1.311940  # C_R O_R
       3      462.655054        1.379256  # C_R C_R
       4      357.440381        1.081418  # C_R H_
       5      367.642470        1.937294  # O_R Rh6+3
       6      379.767766        1.916453  # O_3 Rh6+3
       7      559.995206        0.990254  # O_3 H_
       8      215.154280        2.664000  # Rh6+3 Rh6+3
       9      372.849486        1.994142  # Rh6+3 N_R
      10      663.718927        1.345073  # C_R N_R
      11      529.724731        1.450075  # N_R C_3
      12      331.069389        1.109401  # C_3 H_
      13      369.943935        1.486000  # C_3 C_R

  Angle Coeffs

       1              cosine/periodic      131.755710              -1               3 # C_R C_R O_R
       2              cosine/periodic      187.136328              -1               3 # O_R C_R O_R
       3              cosine/periodic      102.183280              -1               3 # C_R C_R C_R
       4              cosine/periodic      111.297508              -1               3 # C_R C_R C_R
       5              cosine/periodic       57.289016              -1               3 # C_R C_R H_
       6              cosine/periodic      146.313379              -1               3 # C_R O_R Rh6+3
       7                      fourier      150.018405        0.300235        0.267331        0.266745 # Rh6+3 O_3 H_
       8                      fourier      120.499822        0.300235        0.267331        0.266745 # H_ O_3 H_
       9              cosine/periodic      128.124367               1               4 # O_R Rh6+3 O_R
      10              cosine/periodic      130.201034               1               4 # O_R Rh6+3 O_3
      11              cosine/periodic      106.730529               1               4 # O_R Rh6+3 Rh6+3
      12              cosine/periodic      107.561864               1               4 # O_3 Rh6+3 Rh6+3
      13              cosine/periodic      135.558353               1               4 # O_R Rh6+3 N_R
      14              cosine/periodic      115.478512               1               4 # Rh6+3 Rh6+3 N_R
      15              cosine/periodic       79.786967              -1               3 # H_ C_R N_R
      16              cosine/periodic      153.699352              -1               3 # N_R C_R C_R
      17              cosine/periodic      212.442573              -1               3 # N_R C_R N_R
      18              cosine/periodic      120.000516              -1               3 # C_R N_R C_R
      19              cosine/periodic      106.782348              -1               3 # C_R N_R C_3
      20                      fourier      170.007371        0.343737        0.374972        0.281246 # N_R C_3 H_
      21                      fourier      312.548166        0.343737        0.374972        0.281246 # N_R C_3 C_R
      22                      fourier       75.498766        0.343737        0.374972        0.281246 # H_ C_3 H_
      23                      fourier      121.777217        0.343737        0.374972        0.281246 # H_ C_3 C_R
      24              cosine/periodic       99.137149              -1               3 # C_3 C_R C_R
      25              cosine/periodic      109.356147              -1               3 # Rh6+3 N_R C_R

  Dihedral Coeffs

      1        1.250000              -1               2 # O_R C_R C_R C_R
      2        6.737110              -1               2 # C_R C_R O_R Rh6+3
      3        3.368555              -1               2 # C_R C_R C_R H_
      4        0.166667               1               3 # C_R N_R C_3 H_
      5        0.833333              -1               2 # N_R C_3 C_R C_R
      6        3.368555              -1               2 # H_ C_R N_R C_R
      7        6.737110              -1               2 # N_R C_R N_R C_R

  Improper Coeffs

      1        2.000000        1.000000       -1.000000        0.000000               0 # C_R C_R O_R O_R
      2        2.000000        1.000000       -1.000000        0.000000               0 # H_ C_R N_R C_R

  Pair Coeffs

      1        0.105000        3.430851 # C_R C_R
      2        0.044000        2.571134 # H_ H_
      3        0.060000        3.118146 # O_R O_R
      4        0.060000        3.118146 # O_3 O_3
      5        0.053000        2.609442 # Rh6+3 Rh6+3
      6        0.069000        3.260689 # N_R N_R
      7        0.105000        3.430851 # C_3 C_3
      8        0.053000        2.609442 # Rh_x Rh_x
      9        0.069000        3.260689 # N_x N_x

Atoms

  1       1    1      0.000000     -3.972836     58.457042     73.856731
  2       1    1      0.000000     -4.105357     59.176759     75.205918
  3       1    1      0.000000     -5.242600     59.107834     75.954514
  4       1    2      0.000000     -5.980728     58.597579     75.643027
  5       1    1      0.000000     -5.340197     59.794998     77.203528
  6       1    2      0.000000     -6.129068     59.766654     77.730344
  7       1    1      0.000000     -4.217852     60.505625     77.609072
  8       1    2      0.000000     -4.242960     60.997857     78.419157
  9       1    1      0.000000     -3.089731     60.508304     76.865876
  10      1    1      0.000000     -2.987125     59.811158     75.661564
  11      1    2      0.000000     -2.170905     59.783670     75.174895
  12      1    1      0.000000     -1.868871     61.364808     77.415770
  13      1    1      0.000000     -4.154715     59.538703     70.454741
  14      1    1      0.000000     -4.369640     60.921923     69.781644
  15      1    1      0.000000     -5.594672     61.351128     69.359871
  16      1    2      0.000000     -6.352161     60.785907     69.446159
  17      1    1      0.000000     -5.723445     62.580084     68.820181
  18      1    2      0.000000     -6.570320     62.850688     68.487274
  19      1    1      0.000000     -4.642144     63.466071     68.737157
  20      1    2      0.000000     -4.764719     64.344496     68.394682
  21      1    1      0.000000     -3.383010     63.044095     69.157261
  22      1    1      0.000000     -3.238271     61.783694     69.699459
  23      1    2      0.000000     -2.392901     61.495319     70.018119
  24      1    1      0.000000     -2.210954     63.989093     69.124267
  25      1    1      0.000000     -3.651513     56.026118     69.307089
  26      1    1      0.000000     -3.468148     55.232320     68.012012
  27      1    1      0.000000     -4.632857     54.724827     67.394351
  28      1    2      0.000000     -5.489906     54.935831     67.747679
  29      1    1      0.000000     -4.523834     53.904797     66.247244
  30      1    2      0.000000     -5.289217     53.501468     65.852223
  31      1    1      0.000000     -3.185690     53.703231     65.694288
  32      1    2      0.000000     -3.063101     53.196773     64.898245
  33      1    1      0.000000     -2.107171     54.256109     66.339975
  34      1    1      0.000000     -2.215442     55.010996     67.479744
  35      1    2      0.000000     -1.442410     55.376412     67.894992
  36      1    1      0.000000     -0.656563     53.948445     65.852443
  37      1    1      0.000000     -3.450993     54.986758     72.629147
  38      1    1      0.000000     -3.257418     53.559530     73.272774
  39      1    1      0.000000     -4.380213     52.782306     73.612756
  40      1    2      0.000000     -5.262390     53.112793     73.479832
  41      1    1      0.000000     -4.152638     51.485691     74.168769
  42      1    2      0.000000     -4.893211     50.972022     74.470302
  43      1    1      0.000000     -2.847533     50.950259     74.277279
  44      1    2      0.000000     -2.702586     50.068586     74.605650
  45      1    1      0.000000     -1.775784     51.761856     73.879040
  46      1    1      0.000000     -1.965602     53.065115     73.358130
  47      1    2      0.000000     -1.222779     53.585512     73.074782
  48      1    1      0.000000     -0.356935     51.223991     73.955402
  49      1    1      0.000000      2.158607     63.957338     79.170925
  50      1    1      0.000000      3.411672     64.598023     79.790353
  51      1    1      0.000000      3.263823     65.479982     80.879759
  52      1    2      0.000000      2.396149     65.658458     81.219051
  53      1    1      0.000000      4.401655     66.106641     81.485971
  54      1    2      0.000000      4.312424     66.733706     82.191858
  55      1    1      0.000000      5.674641     65.731310     80.968245
  56      1    2      0.000000      6.463566     66.065550     81.377883
  57      1    1      0.000000      5.777226     64.904246     79.904715
  58      1    1      0.000000      4.679039     64.297661     79.311742
  59      1    2      0.000000      4.792649     63.689127     78.590483
  60      1    1      0.000000      7.229363     64.537780     79.384306
  61      1    1      0.000000     -0.458999     64.463260     76.536261
  62      1    1      0.000000     -0.967025     65.524148     75.496482
  63      1    1      0.000000     -1.750273     66.637088     75.878415
  64      1    2      0.000000     -1.926338     66.805924     76.797018
  65      1    1      0.000000     -2.252819     67.472848     74.917341
  66      1    2      0.000000     -2.817326     68.198410     75.158707
  67      1    1      0.000000     -1.943943     67.258154     73.651280
  68      1    2      0.000000     -2.286852     67.843067     72.984541
  69      1    1      0.000000     -1.118755     66.176329     73.267658
  70      1    1      0.000000     -0.598535     65.322318     74.151359
  71      1    2      0.000000     -0.014122     64.619597     73.889017
  72      1    1      0.000000     -0.776376     66.016918     71.735860
  73      1    1      0.000000      0.764258     60.885643     79.985657
  74      1    1      0.000000      1.220823     59.831324     81.000009
  75      1    1      0.000000      0.578965     59.723170     82.285112
  76      1    2      0.000000     -0.172307     60.269605     82.494766
  77      1    1      0.000000      1.061458     58.826562     83.213437
  78      1    2      0.000000      0.698200     58.797232     84.091203
  79      1    1      0.000000      2.031715     58.009555     82.863634
  80      1    2      0.000000      2.291601     57.335295     83.479391
  81      1    1      0.000000      2.691781     58.065669     81.669384
  82      1    1      0.000000      2.226904     59.013673     80.727454
  83      1    2      0.000000      2.647319     59.063121     79.878780
  84      1    1      0.000000      3.874802     57.106796     81.374168
  85      1    1      0.000000      1.823254     67.235721     69.401761
  86      1    1      0.000000      2.961982     68.208300     69.455459
  87      1    1      0.000000      2.798056     69.531423     69.556952
  88      1    2      0.000000      1.914850     69.883280     69.552959
  89      1    1      0.000000      3.877060     70.418232     69.670669
  90      1    2      0.000000      3.721320     71.351223     69.733788
  91      1    1      0.000000      5.214838     69.916303     69.690207
  92      1    2      0.000000      5.952788     70.504492     69.794160
  93      1    1      0.000000      5.405931     68.523786     69.553284
  94      1    1      0.000000      4.282228     67.677312     69.500180
  95      1    2      0.000000      4.407792     66.736350     69.495327
  96      1    1      0.000000      6.759630     67.940379     69.494971
  97      1    1      0.000000      0.393304     65.258457     66.792172
  98      1    1      0.000000      0.810741     65.100747     65.310617
  99      1    1      0.000000      0.219441     65.886332     64.340924
  100     1    2      0.000000     -0.475881     66.475070     64.605543
  101     1    1      0.000000      0.596609     65.859387     62.962968
  102     1    2      0.000000      0.241316     66.463538     62.320010
  103     1    1      0.000000      1.556249     64.849110     62.626810
  104     1    2      0.000000      1.744941     64.681659     61.710971
  105     1    1      0.000000      2.213952     64.111725     63.586291
  106     1    1      0.000000      1.757540     64.207631     64.969713
  107     1    2      0.000000      2.133643     63.638782     65.630526
  108     1    1      0.000000      3.353398     63.098229     63.274386
  109     1    1      0.000000      7.452820     57.609628     81.472246
  110     1    1      0.000000      8.292420     58.747074     81.824660
  111     1    1      0.000000      8.863314     58.867639     83.162897
  112     1    2      0.000000      8.753979     58.173721     83.803022
  113     1    1      0.000000      9.584578     60.034849     83.482759
  114     1    2      0.000000      9.922684     60.128547     84.366136
  115     1    1      0.000000      9.819399     61.044077     82.583203
  116     1    2      0.000000     10.334888     61.803170     82.829082
  117     1    1      0.000000      9.283917     60.930357     81.301897
  118     1    1      0.000000      8.549878     59.746104     80.915077
  119     1    2      0.000000      8.243031     59.656878     80.022328
  120     1    1      0.000000      9.505418     61.988466     80.249141
  121     1    1      0.000000      4.347817     53.646904     80.118427
  122     1    1      0.000000      3.486668     52.463903     79.709644
  123     1    1      0.000000      2.941813     51.661160     80.725263
  124     1    2      0.000000      3.036105     51.908818     81.637010
  125     1    1      0.000000      2.271969     50.503598     80.378036
  126     1    2      0.000000      1.973537     49.900470     81.044927
  127     1    1      0.000000      2.032827     50.229667     78.980970
  128     1    2      0.000000      1.531171     49.463100     78.729545
  129     1    1      0.000000      2.537234     51.091590     77.996745
  130     1    1      0.000000      3.232282     52.219903     78.392533
  131     1    2      0.000000      3.538266     52.833872     77.734554
  132     1    1      0.000000      2.342813     50.763078     76.534159
  133     1    1      0.000000      1.808532     49.716675     71.493388
  134     1    1      0.000000      1.678637     49.441234     70.000324
  135     1    1      0.000000      1.386108     48.088713     69.573387
  136     1    2      0.000000      1.318591     47.391290     70.216342
  137     1    1      0.000000      1.206763     47.826036     68.259288
  138     1    2      0.000000      0.981247     46.945561     67.983607
  139     1    1      0.000000      1.356347     48.836149     67.306218
  140     1    2      0.000000      1.305827     48.638920     66.377271
  141     1    1      0.000000      1.589244     50.201560     67.759247
  142     1    1      0.000000      1.787866     50.445960     69.102248
  143     1    2      0.000000      2.002115     51.322445     69.398837
  144     1    1      0.000000      1.620389     51.341037     66.682953
  145     1    3      0.000000     -2.833640     58.347113     73.386330
  146     1    3      0.000000     -5.077916     57.997523     73.419446
  147     1    3      0.000000     -2.971114     59.207746     70.662391
  148     1    3      0.000000     -5.216650     58.894864     70.639464
  149     1    3      0.000000     -2.567908     56.507881     69.799127
  150     1    3      0.000000     -4.808159     56.160694     69.775755
  151     1    3      0.000000     -2.442007     55.629315     72.464812
  152     1    3      0.000000     -4.696154     55.293000     72.483186
  153     1    3      0.000000      2.391673     63.217318     78.209723
  154     1    3      0.000000      1.070659     64.232549     79.735017
  155     1    3      0.000000      0.328943     63.611791     76.176621
  156     1    3      0.000000     -0.961278     64.625388     77.719441
  157     1    3      0.000000     -0.761006     61.123152     76.831794
  158     1    3      0.000000     -2.103545     62.110977     78.391723
  159     1    3      0.000000      1.268812     60.708410     78.858981
  160     1    3      0.000000     -0.072730     61.722681     80.392065
  161     1    3      0.000000      2.056097     66.044811     69.642727
  162     1    3      0.000000      0.693637     67.775656     69.134038
  163     1    3      0.000000      0.924991     64.451426     67.570296
  164     1    3      0.000000     -0.439422     66.184542     67.002828
  165     1    3      0.000000     -1.095538     63.512718     69.442382
  166     1    3      0.000000     -2.440228     65.198906     68.857169
  167     1    3      0.000000      0.033404     65.051798     71.509215
  168     1    3      0.000000     -1.327941     66.798372     70.915931
  169     1    3      0.000000      7.115461     57.531598     80.269031
  170     1    3      0.000000      7.150188     56.777481     82.391339
  171     1    3      0.000000      4.292462     57.161120     80.137713
  172     1    3      0.000000      4.298624     56.441502     82.267951
  173     1    3      0.000000      4.662466     54.480225     79.213304
  174     1    3      0.000000      4.654433     53.756741     81.365096
  175     1    3      0.000000      7.487068     54.790196     79.304668
  176     1    3      0.000000      7.490512     54.032526     81.423693
  177     1    3      0.000000      2.641350     51.675537     75.738958
  178     1    3      0.000000      1.813908     49.641869     76.242655
  179     1    3      0.000000      0.571274     52.018506     73.714931
  180     1    3      0.000000     -0.234237     50.014161     74.236521
  181     1    3      0.000000      2.294809     50.823819     71.778654
  182     1    3      0.000000      1.470789     48.827224     72.303132
  183     1    3      0.000000      4.337509     50.496568     73.742238
  184     1    3      0.000000      3.503769     48.404252     74.231732
  185     1    3      0.000000     10.929320     62.707033     77.133174
  186     1    3      0.000000     11.876020     64.108491     78.670323
  187     1    3      0.000000      9.106824     64.780560     76.388012
  188     1    3      0.000000      9.961736     66.165291     77.978398
  189     1    3      0.000000      7.232882     63.801521     78.348330
  190     1    3      0.000000      8.178023     65.128355     79.954578
  191     1    3      0.000000      9.016323     61.742494     79.107258
  192     1    3      0.000000     10.024678     63.047513     80.624888
  193     1    4      0.000000     -0.298802     57.804804     71.564460
  194     1    4      0.000000      2.237446     61.138394     75.870096
  195     1    4      0.000000      1.836511     62.903963     70.245500
  196     1    4      0.000000      5.932996     57.052270     77.452384
  197     1    4      0.000000      3.395435     53.400576     73.220217
  198     1    4      0.000000      8.061304     61.742877     76.145813
  199     1    5      0.000000     -2.643942     57.435628     71.574686
  200     1    8      0.000000     -5.017382     57.079238     71.564162
  201     1    5      0.000000      0.833391     62.151949     77.452865
  202     1    8      0.000000     -0.566633     63.207093     79.090798
  203     1    5      0.000000      0.512766     64.710796     69.547952
  204     1    8      0.000000     -0.918587     66.534677     68.947764
  205     1    5      0.000000      5.884715     56.017336     79.664053
  206     1    8      0.000000      5.909656     55.226018     81.933260
  207     1    5      0.000000      2.494405     51.315542     73.737780
  208     1    8      0.000000      1.600184     49.161566     74.286991
  209     1    5      0.000000      9.058289     63.211575     77.696682
  210     1    8      0.000000     10.039707     64.649201     79.345440
  211     1    1      0.000000     15.190994     58.728927     69.658770
  212     1    1      0.000000     15.323194     58.010152     68.309494
  213     1    1      0.000000     16.460437     58.079078     67.560898
  214     1    2      0.000000     17.199061     58.589421     67.871521
  215     1    1      0.000000     16.558355     57.390971     66.311972
  216     1    2      0.000000     17.347723     57.419403     65.784292
  217     1    1      0.000000     15.436010     56.680344     65.906428
  218     1    2      0.000000     15.461615     56.188199     65.095479
  219     1    1      0.000000     14.308064     56.678695     66.648671
  220     1    1      0.000000     14.205284     57.374811     67.853936
  221     1    2      0.000000     13.389559     57.402387     68.339741
  222     1    1      0.000000     13.087525     55.821249     66.098867
  223     1    1      0.000000     15.373369     57.647354     73.059896
  224     1    1      0.000000     15.587973     56.265077     73.732903
  225     1    1      0.000000     16.813326     55.834929     74.154766
  226     1    2      0.000000     17.569997     56.401004     74.069252
  227     1    1      0.000000     16.942099     54.605973     74.694456
  228     1    2      0.000000     17.788974     54.335368     75.027362
  229     1    1      0.000000     15.860303     53.719898     74.778343
  230     1    2      0.000000     15.983052     52.842504     75.119866
  231     1    1      0.000000     14.601343     54.142905     74.357287
  232     1    1      0.000000     14.456925     55.402363     73.815178
  233     1    2      0.000000     13.610738     55.691592     73.497292
  234     1    1      0.000000     13.429608     53.196964     74.390369
  235     1    1      0.000000     14.869350     61.160793     74.208322
  236     1    1      0.000000     14.686306     61.953649     75.503488
  237     1    1      0.000000     15.851512     62.461230     76.120286
  238     1    2      0.000000     16.708561     62.250225     75.766957
  239     1    1      0.000000     15.742167     63.282203     77.267304
  240     1    2      0.000000     16.507871     63.684588     77.662413
  241     1    1      0.000000     14.404023     63.483768     77.820259
  242     1    2      0.000000     14.281434     63.990226     78.616303
  243     1    1      0.000000     13.325504     62.930891     77.174572
  244     1    1      0.000000     13.434096     62.175061     76.034893
  245     1    2      0.000000     12.660743     61.810587     75.619555
  246     1    1      0.000000     11.875218     63.237612     77.662193
  247     1    1      0.000000     14.669326     62.200241     70.885401
  248     1    1      0.000000     14.475255     63.627382     70.242638
  249     1    1      0.000000     15.598371     64.403663     69.902744
  250     1    2      0.000000     16.480723     64.074207     70.034716
  251     1    1      0.000000     15.370971     65.701308     69.345778
  252     1    2      0.000000     16.111865     66.214035     69.044334
  253     1    1      0.000000     14.065866     66.236740     69.237268
  254     1    2      0.000000     13.921240     67.117471     68.908986
  255     1    1      0.000000     12.994117     65.425143     69.635507
  256     1    1      0.000000     13.184256     64.120942     70.156506
  257     1    2      0.000000     12.441112     63.601488     70.439766
  258     1    1      0.000000     11.575590     65.962066     69.559234
  259     1    1      0.000000      9.059726     53.229662     64.343622
  260     1    1      0.000000      7.806661     52.588977     63.724195
  261     1    1      0.000000      7.954510     51.707018     62.634788
  262     1    2      0.000000      8.822505     51.527599     62.295586
  263     1    1      0.000000      6.816678     51.080359     62.028577
  264     1    2      0.000000      6.906230     50.452351     61.322778
  265     1    1      0.000000      5.544014     51.454747     62.546391
  266     1    2      0.000000      4.755088     51.120506     62.136754
  267     1    1      0.000000      5.441428     52.281810     63.609922
  268     1    1      0.000000      6.539294     52.889338     64.202806
  269     1    2      0.000000      6.425684     53.497873     64.924064
  270     1    1      0.000000      3.988473     52.649132     64.131105
  271     1    1      0.000000     11.677332     52.723739     66.978287
  272     1    1      0.000000     12.185358     51.662852     68.018066
  273     1    1      0.000000     12.968928     50.548969     67.636222
  274     1    2      0.000000     13.144671     50.381075     66.717530
  275     1    1      0.000000     13.471152     49.714152     68.597206
  276     1    2      0.000000     14.035659     48.988590     68.355841
  277     1    1      0.000000     13.162276     49.928846     69.863267
  278     1    2      0.000000     13.505010     49.342902     70.530960
  279     1    1      0.000000     12.337088     51.010670     70.246889
  280     1    1      0.000000     11.816868     51.864681     69.363188
  281     1    2      0.000000     11.232455     52.567402     69.625531
  282     1    1      0.000000     11.995030     51.169138     71.778777
  283     1    1      0.000000     10.454075     56.301356     63.528890
  284     1    1      0.000000      9.997832     57.354733     62.514628
  285     1    1      0.000000     10.639689     57.462887     61.229525
  286     1    2      0.000000     11.390465     56.916364     61.020734
  287     1    1      0.000000     10.156875     58.360437     60.301111
  288     1    2      0.000000     10.520133     58.389768     59.423344
  289     1    1      0.000000      9.186939     59.176502     60.651002
  290     1    2      0.000000      8.926732     59.851705     60.035156
  291     1    1      0.000000      8.526377     59.120300     61.846116
  292     1    1      0.000000      8.991429     58.173327     62.787093
  293     1    2      0.000000      8.571336     58.122936     63.635856
  294     1    1      0.000000      7.343852     60.079260     62.140469
  295     1    1      0.000000      9.395079     49.951279     74.112787
  296     1    1      0.000000      8.255855     48.978611     74.059952
  297     1    1      0.000000      8.420277     47.655576     73.957596
  298     1    2      0.000000      9.303805     47.302777     73.961678
  299     1    1      0.000000      7.341273     46.768768     73.843878
  300     1    2      0.000000      7.497335     45.834834     73.780849
  301     1    1      0.000000      6.003817     47.269754     73.824429
  302     1    2      0.000000      5.265048     46.682420     73.721251
  303     1    1      0.000000      5.812724     48.662271     73.961353
  304     1    1      0.000000      6.936427     49.508744     74.014456
  305     1    2      0.000000      6.810541     50.450650     74.019220
  306     1    1      0.000000      4.458703     49.246621     74.019577
  307     1    1      0.000000     10.825350     51.927599     76.722465
  308     1    1      0.000000     10.407592     52.086253     78.203931
  309     1    1      0.000000     10.998892     51.300667     79.173623
  310     1    2      0.000000     11.694535     50.710986     78.909093
  311     1    1      0.000000     10.622045     51.326669     80.551668
  312     1    2      0.000000     10.977017     50.723462     81.194537
  313     1    1      0.000000      9.662406     52.336946     80.887826
  314     1    2      0.000000      9.473392     52.505340     81.803576
  315     1    1      0.000000      9.004702     53.074331     79.928346
  316     1    1      0.000000      9.460618     52.978338     78.545788
  317     1    2      0.000000      9.085011     53.547275     77.884111
  318     1    1      0.000000      7.864935     54.088770     80.240162
  319     1    1      0.000000      3.765513     59.577372     62.042301
  320     1    1      0.000000      2.926234     58.438982     61.689977
  321     1    1      0.000000      2.355019     58.319361     60.351651
  322     1    2      0.000000      2.464354     59.013279     59.711526
  323     1    1      0.000000      1.634077     57.151208     60.031878
  324     1    2      0.000000      1.295153     57.058365     59.149275
  325     1    1      0.000000      1.398934     56.142922     60.931345
  326     1    2      0.000000      0.883766     55.382887     60.685554
  327     1    1      0.000000      1.934738     56.255700     62.212739
  328     1    1      0.000000      2.668455     57.440896     62.599470
  329     1    2      0.000000      2.974805     57.530034     63.493083
  330     1    1      0.000000      1.713237     55.197590     63.265495
  331     1    1      0.000000      6.870516     63.540096     63.396121
  332     1    1      0.000000      7.731987     64.722154     63.804992
  333     1    1      0.000000      8.276345     65.524809     62.790237
  334     1    2      0.000000      8.182549     65.277239     61.877626
  335     1    1      0.000000      8.946685     66.682459     63.136601
  336     1    2      0.000000      9.244796     67.286529     62.469620
  337     1    1      0.000000      9.185010     66.957245     64.534441
  338     1    2      0.000000      9.687483     67.722957     64.785092
  339     1    1      0.000000      8.681421     66.094466     65.517891
  340     1    1      0.000000      7.986051     64.967097     65.122014